     1     1
   1   1
  -79.999999999999986  -0.000000000000000  -0.000000000000000
  -0.000000000000000  -79.999999999999986  -0.000000000000000
  -0.000000000000000  -0.000000000000000  -79.999999999999986
